<?xml version="1.0" encoding="UTF-8"?>

<!-- generated on 2023-07-31 22:46:04 by Eclipse SUMO GUI Version 1.16.0
<configuration xmlns:xsi="http://www.w3.org/2001/XMLSchema-instance" xsi:noNamespaceSchemaLocation="http://sumo.dlr.de/xsd/sumoConfiguration.xsd">

    <input>
        <net-file value="gui_lin_road2\network.net.xml"/>
        <route-files value="gui_lin_road2\route.rou.xml"/>
    </input>

    <output>
        <tripinfo-output value="gui_lin_road2\tripinfo.xml"/>
    </output>

    <traci_server>
        <remote-port value="52053"/>
    </traci_server>

</configuration>
-->

<tripinfos xmlns:xsi="http://www.w3.org/2001/XMLSchema-instance" xsi:noNamespaceSchemaLocation="http://sumo.dlr.de/xsd/tripinfo_file.xsd">
    <tripinfo id="3" depart="12.00" departLane="124095559#1_0" departPos="5.10" departSpeed="22.45" departDelay="0.00" arrival="48.00" arrivalLane="50342919#1_0" arrivalPos="185.31" arrivalSpeed="6.31" duration="36.00" routeLength="320.27" waitingTime="10.00" waitingCount="1" stopTime="0.00" timeLoss="20.87" rerouteNo="0" devices="tripinfo_3" vType="DEFAULT_VEHTYPE" speedFactor="1.01" vaporized=""/>
    <tripinfo id="6" depart="24.00" departLane="42195400#2_0" departPos="5.10" departSpeed="18.46" departDelay="0.00" arrival="71.00" arrivalLane="124095559#1_0" arrivalPos="131.03" arrivalSpeed="17.29" duration="47.00" routeLength="638.47" waitingTime="0.00" waitingCount="0" stopTime="0.00" timeLoss="9.20" rerouteNo="0" devices="tripinfo_6" vType="DEFAULT_VEHTYPE" speedFactor="0.83" vaporized=""/>
    <tripinfo id="0" depart="0.00" departLane="50342919#1_0" departPos="5.10" departSpeed="23.55" departDelay="0.00" arrival="93.00" arrivalLane="50342919#2_0" arrivalPos="160.53" arrivalSpeed="5.25" duration="93.00" routeLength="355.11" waitingTime="62.00" waitingCount="2" stopTime="0.00" timeLoss="77.85" rerouteNo="0" devices="tripinfo_0" vType="DEFAULT_VEHTYPE" speedFactor="1.06" vaporized=""/>
    <tripinfo id="1" depart="4.00" departLane="124095559#2_0" departPos="5.10" departSpeed="20.85" departDelay="0.00" arrival="105.00" arrivalLane="123700467#1_0" arrivalPos="131.53" arrivalSpeed="20.66" duration="101.00" routeLength="739.57" waitingTime="29.00" waitingCount="3" stopTime="0.00" timeLoss="60.62" rerouteNo="0" devices="tripinfo_1" vType="DEFAULT_VEHTYPE" speedFactor="0.94" vaporized=""/>
    <tripinfo id="10" depart="40.00" departLane="50342919#1_0" departPos="5.10" departSpeed="19.04" departDelay="0.00" arrival="108.00" arrivalLane="42195400#2_0" arrivalPos="134.12" arrivalSpeed="18.85" duration="68.00" routeLength="498.26" waitingTime="22.00" waitingCount="1" stopTime="0.00" timeLoss="39.96" rerouteNo="0" devices="tripinfo_10" vType="DEFAULT_VEHTYPE" speedFactor="0.86" vaporized=""/>
    <tripinfo id="9" depart="36.00" departLane="50342919#1_0" departPos="5.10" departSpeed="20.84" departDelay="0.00" arrival="110.00" arrivalLane="123700467#1_0" arrivalPos="131.53" arrivalSpeed="20.84" duration="74.00" routeLength="456.94" waitingTime="24.00" waitingCount="2" stopTime="0.00" timeLoss="48.47" rerouteNo="0" devices="tripinfo_9" vType="DEFAULT_VEHTYPE" speedFactor="0.94" vaporized=""/>
    <tripinfo id="5" depart="20.00" departLane="123700467#0_0" departPos="5.10" departSpeed="22.89" departDelay="0.00" arrival="114.00" arrivalLane="50342919#2_0" arrivalPos="160.53" arrivalSpeed="21.64" duration="94.00" routeLength="1399.30" waitingTime="17.00" waitingCount="1" stopTime="0.00" timeLoss="31.60" rerouteNo="0" devices="tripinfo_5" vType="DEFAULT_VEHTYPE" speedFactor="1.03" vaporized=""/>
    <tripinfo id="12" depart="48.00" departLane="-123700467#3_0" departPos="5.10" departSpeed="22.80" departDelay="0.00" arrival="121.00" arrivalLane="50342919#2_0" arrivalPos="160.53" arrivalSpeed="14.86" duration="73.00" routeLength="846.85" waitingTime="16.00" waitingCount="2" stopTime="0.00" timeLoss="34.49" rerouteNo="0" devices="tripinfo_12" vType="DEFAULT_VEHTYPE" speedFactor="1.03" vaporized=""/>
    <tripinfo id="7" depart="28.00" departLane="301781877#0_0" departPos="5.10" departSpeed="23.24" departDelay="0.00" arrival="129.00" arrivalLane="42195400#2_0" arrivalPos="134.12" arrivalSpeed="22.86" duration="101.00" routeLength="617.96" waitingTime="48.00" waitingCount="3" stopTime="0.00" timeLoss="71.81" rerouteNo="0" devices="tripinfo_7" vType="DEFAULT_VEHTYPE" speedFactor="1.05" vaporized=""/>
    <tripinfo id="4" depart="16.00" departLane="123700467#2_0" departPos="5.10" departSpeed="24.06" departDelay="0.00" arrival="138.00" arrivalLane="50342919#1_0" arrivalPos="185.31" arrivalSpeed="5.83" duration="122.00" routeLength="666.65" waitingTime="64.00" waitingCount="3" stopTime="0.00" timeLoss="91.77" rerouteNo="0" devices="tripinfo_4" vType="DEFAULT_VEHTYPE" speedFactor="1.08" vaporized=""/>
    <tripinfo id="18" depart="72.00" departLane="123700467#2_0" departPos="5.10" departSpeed="19.52" departDelay="0.00" arrival="138.00" arrivalLane="59387952#2_0" arrivalPos="185.74" arrivalSpeed="5.29" duration="66.00" routeLength="604.37" waitingTime="11.00" waitingCount="2" stopTime="0.00" timeLoss="32.99" rerouteNo="0" devices="tripinfo_18" vType="DEFAULT_VEHTYPE" speedFactor="0.88" vaporized=""/>
    <tripinfo id="8" depart="32.00" departLane="-124095559#2_0" departPos="5.10" departSpeed="19.69" departDelay="0.00" arrival="141.00" arrivalLane="301781877#1_0" arrivalPos="184.42" arrivalSpeed="8.58" duration="109.00" routeLength="666.61" waitingTime="45.00" waitingCount="3" stopTime="0.00" timeLoss="71.52" rerouteNo="0" devices="tripinfo_8" vType="DEFAULT_VEHTYPE" speedFactor="0.89" vaporized=""/>
    <tripinfo id="22" depart="88.00" departLane="-123700467#1_0" departPos="5.10" departSpeed="25.74" departDelay="0.00" arrival="142.00" arrivalLane="123700467#3_0" arrivalPos="531.93" arrivalSpeed="24.88" duration="54.00" routeLength="950.67" waitingTime="0.00" waitingCount="0" stopTime="0.00" timeLoss="15.46" rerouteNo="0" devices="tripinfo_22" vType="DEFAULT_VEHTYPE" speedFactor="1.16" vaporized=""/>
    <tripinfo id="15" depart="60.00" departLane="42195400#0_0" departPos="5.10" departSpeed="22.02" departDelay="0.00" arrival="183.00" arrivalLane="123700467#1_0" arrivalPos="131.53" arrivalSpeed="4.09" duration="123.00" routeLength="758.78" waitingTime="64.00" waitingCount="3" stopTime="0.00" timeLoss="86.96" rerouteNo="0" devices="tripinfo_15" vType="DEFAULT_VEHTYPE" speedFactor="0.99" vaporized=""/>
    <tripinfo id="20" depart="80.00" departLane="42195400#0_0" departPos="5.10" departSpeed="20.92" departDelay="0.00" arrival="183.00" arrivalLane="42195400#2_0" arrivalPos="134.12" arrivalSpeed="6.52" duration="103.00" routeLength="448.93" waitingTime="67.00" waitingCount="2" stopTime="0.00" timeLoss="81.37" rerouteNo="0" devices="tripinfo_20" vType="DEFAULT_VEHTYPE" speedFactor="0.94" vaporized=""/>
    <tripinfo id="16" depart="64.00" departLane="59387952#1_0" departPos="5.10" departSpeed="20.59" departDelay="0.00" arrival="185.00" arrivalLane="301781877#2_0" arrivalPos="739.87" arrivalSpeed="19.34" duration="121.00" routeLength="1390.99" waitingTime="21.00" waitingCount="2" stopTime="0.00" timeLoss="51.06" rerouteNo="0" devices="tripinfo_16" vType="DEFAULT_VEHTYPE" speedFactor="0.93" vaporized=""/>
    <tripinfo id="13" depart="52.00" departLane="50342919#1_0" departPos="5.10" departSpeed="23.27" departDelay="0.00" arrival="190.00" arrivalLane="124095559#2_0" arrivalPos="133.11" arrivalSpeed="23.01" duration="138.00" routeLength="799.90" waitingTime="63.00" waitingCount="3" stopTime="0.00" timeLoss="100.36" rerouteNo="0" devices="tripinfo_13" vType="DEFAULT_VEHTYPE" speedFactor="1.05" vaporized=""/>
    <tripinfo id="33" depart="132.00" departLane="42195400#0_0" departPos="5.10" departSpeed="25.15" departDelay="0.00" arrival="199.00" arrivalLane="123700467#2_0" arrivalPos="133.66" arrivalSpeed="23.99" duration="67.00" routeLength="613.24" waitingTime="17.00" waitingCount="2" stopTime="0.00" timeLoss="39.89" rerouteNo="0" devices="tripinfo_33" vType="DEFAULT_VEHTYPE" speedFactor="1.13" vaporized=""/>
    <tripinfo id="28" depart="112.00" departLane="124095559#2_0" departPos="5.10" departSpeed="19.77" departDelay="0.00" arrival="210.00" arrivalLane="-124095559#0_0" arrivalPos="342.32" arrivalSpeed="18.64" duration="98.00" routeLength="761.59" waitingTime="43.00" waitingCount="1" stopTime="0.00" timeLoss="57.23" rerouteNo="0" devices="tripinfo_28" vType="DEFAULT_VEHTYPE" speedFactor="0.89" vaporized=""/>
    <tripinfo id="29" depart="116.00" departLane="-124095559#2_0" departPos="5.10" departSpeed="18.35" departDelay="0.00" arrival="212.00" arrivalLane="50342919#3_0" arrivalPos="478.05" arrivalSpeed="18.22" duration="96.00" routeLength="989.23" waitingTime="26.00" waitingCount="1" stopTime="0.00" timeLoss="40.12" rerouteNo="0" devices="tripinfo_29" vType="DEFAULT_VEHTYPE" speedFactor="0.83" vaporized=""/>
    <tripinfo id="11" depart="44.00" departLane="50342919#2_0" departPos="5.10" departSpeed="24.24" departDelay="0.00" arrival="218.00" arrivalLane="123700467#3_0" arrivalPos="531.93" arrivalSpeed="23.43" duration="174.00" routeLength="1296.47" waitingTime="84.00" waitingCount="3" stopTime="0.00" timeLoss="117.84" rerouteNo="0" devices="tripinfo_11" vType="DEFAULT_VEHTYPE" speedFactor="1.09" vaporized=""/>
    <tripinfo id="38" depart="152.00" departLane="59387952#2_0" departPos="5.10" departSpeed="26.04" departDelay="0.00" arrival="222.00" arrivalLane="-124095559#2_0" arrivalPos="133.11" arrivalSpeed="9.78" duration="70.00" routeLength="602.81" waitingTime="14.00" waitingCount="2" stopTime="0.00" timeLoss="44.40" rerouteNo="0" devices="tripinfo_38" vType="DEFAULT_VEHTYPE" speedFactor="1.17" vaporized=""/>
    <tripinfo id="14" depart="56.00" departLane="-123700467#3_0" departPos="5.10" departSpeed="24.95" departDelay="0.00" arrival="224.00" arrivalLane="-124095559#1_0" arrivalPos="131.01" arrivalSpeed="23.75" duration="168.00" routeLength="1010.36" waitingTime="89.00" waitingCount="4" stopTime="0.00" timeLoss="125.04" rerouteNo="0" devices="tripinfo_14" vType="DEFAULT_VEHTYPE" speedFactor="1.12" vaporized=""/>
    <tripinfo id="27" depart="108.00" departLane="123700467#1_0" departPos="5.10" departSpeed="13.85" departDelay="0.00" arrival="229.00" arrivalLane="-124095559#1_0" arrivalPos="131.01" arrivalSpeed="20.45" duration="121.00" routeLength="754.56" waitingTime="47.00" waitingCount="3" stopTime="0.00" timeLoss="84.04" rerouteNo="0" devices="tripinfo_27" vType="DEFAULT_VEHTYPE" speedFactor="0.97" vaporized=""/>
    <tripinfo id="40" depart="160.00" departLane="42195400#1_0" departPos="5.10" departSpeed="22.66" departDelay="0.00" arrival="229.00" arrivalLane="59387952#1_0" arrivalPos="160.17" arrivalSpeed="6.52" duration="69.00" routeLength="443.66" waitingTime="29.00" waitingCount="2" stopTime="0.00" timeLoss="48.48" rerouteNo="0" devices="tripinfo_40" vType="DEFAULT_VEHTYPE" speedFactor="1.02" vaporized=""/>
    <tripinfo id="32" depart="128.00" departLane="123700467#1_0" departPos="5.10" departSpeed="21.08" departDelay="0.00" arrival="231.00" arrivalLane="59387952#1_0" arrivalPos="160.17" arrivalSpeed="7.80" duration="103.00" routeLength="608.33" waitingTime="44.00" waitingCount="2" stopTime="0.00" timeLoss="71.46" rerouteNo="0" devices="tripinfo_32" vType="DEFAULT_VEHTYPE" speedFactor="0.95" vaporized=""/>
    <tripinfo id="41" depart="165.00" departLane="124095559#1_0" departPos="5.10" departSpeed="13.57" departDelay="1.00" arrival="240.00" arrivalLane="50342919#2_0" arrivalPos="160.53" arrivalSpeed="20.96" duration="75.00" routeLength="495.17" waitingTime="29.00" waitingCount="2" stopTime="0.00" timeLoss="50.65" rerouteNo="0" devices="tripinfo_41" vType="DEFAULT_VEHTYPE" speedFactor="0.97" vaporized=""/>
    <tripinfo id="48" depart="192.00" departLane="-123700467#3_0" departPos="5.10" departSpeed="24.26" departDelay="0.00" arrival="261.00" arrivalLane="301781877#2_0" arrivalPos="739.87" arrivalSpeed="23.76" duration="69.00" routeLength="1477.50" waitingTime="0.00" waitingCount="0" stopTime="0.00" timeLoss="6.55" rerouteNo="0" devices="tripinfo_48" vType="DEFAULT_VEHTYPE" speedFactor="1.09" vaporized=""/>
    <tripinfo id="23" depart="92.00" departLane="301781877#1_0" departPos="5.10" departSpeed="22.62" departDelay="0.00" arrival="273.00" arrivalLane="123700467#2_0" arrivalPos="133.66" arrivalSpeed="4.88" duration="181.00" routeLength="666.62" waitingTime="107.00" waitingCount="5" stopTime="0.00" timeLoss="148.59" rerouteNo="0" devices="tripinfo_23" vType="DEFAULT_VEHTYPE" speedFactor="1.02" vaporized=""/>
    <tripinfo id="34" depart="136.00" departLane="123700467#2_0" departPos="5.10" departSpeed="20.69" departDelay="0.00" arrival="273.00" arrivalLane="124095559#1_0" arrivalPos="131.03" arrivalSpeed="5.04" duration="137.00" routeLength="744.43" waitingTime="68.00" waitingCount="4" stopTime="0.00" timeLoss="97.93" rerouteNo="0" devices="tripinfo_34" vType="DEFAULT_VEHTYPE" speedFactor="0.93" vaporized=""/>
    <tripinfo id="36" depart="144.00" departLane="-123700467#2_0" departPos="5.10" departSpeed="25.65" departDelay="0.00" arrival="281.00" arrivalLane="124095559#2_0" arrivalPos="133.11" arrivalSpeed="22.26" duration="137.00" routeLength="750.43" waitingTime="71.00" waitingCount="3" stopTime="0.00" timeLoss="105.82" rerouteNo="0" devices="tripinfo_36" vType="DEFAULT_VEHTYPE" speedFactor="1.15" vaporized=""/>
    <tripinfo id="37" depart="148.00" departLane="50342919#0_0" departPos="5.10" departSpeed="22.34" departDelay="0.00" arrival="281.00" arrivalLane="124095559#1_0" arrivalPos="131.03" arrivalSpeed="22.24" duration="133.00" routeLength="1297.77" waitingTime="55.00" waitingCount="2" stopTime="0.00" timeLoss="72.85" rerouteNo="0" devices="tripinfo_37" vType="DEFAULT_VEHTYPE" speedFactor="1.01" vaporized=""/>
    <tripinfo id="44" depart="176.00" departLane="124095559#0_0" departPos="5.10" departSpeed="24.49" departDelay="0.00" arrival="281.00" arrivalLane="-123700467#2_0" arrivalPos="133.66" arrivalSpeed="23.22" duration="105.00" routeLength="957.50" waitingTime="36.00" waitingCount="2" stopTime="0.00" timeLoss="63.18" rerouteNo="0" devices="tripinfo_44" vType="DEFAULT_VEHTYPE" speedFactor="1.10" vaporized=""/>
    <tripinfo id="21" depart="84.00" departLane="50342919#1_0" departPos="5.10" departSpeed="20.80" departDelay="0.00" arrival="283.00" arrivalLane="59387952#3_0" arrivalPos="1066.02" arrivalSpeed="20.77" duration="199.00" routeLength="1595.94" waitingTime="96.00" waitingCount="3" stopTime="0.00" timeLoss="119.37" rerouteNo="0" devices="tripinfo_21" vType="DEFAULT_VEHTYPE" speedFactor="0.94" vaporized=""/>
    <tripinfo id="49" depart="196.00" departLane="123700467#2_0" departPos="5.10" departSpeed="23.06" departDelay="0.00" arrival="283.00" arrivalLane="123700467#1_0" arrivalPos="131.53" arrivalSpeed="21.93" duration="87.00" routeLength="545.80" waitingTime="42.00" waitingCount="1" stopTime="0.00" timeLoss="60.78" rerouteNo="0" devices="tripinfo_49" vType="DEFAULT_VEHTYPE" speedFactor="1.04" vaporized=""/>
    <tripinfo id="35" depart="140.00" departLane="-123700467#3_0" departPos="5.10" departSpeed="26.19" departDelay="0.00" arrival="284.00" arrivalLane="59387952#3_0" arrivalPos="1066.02" arrivalSpeed="21.88" duration="144.00" routeLength="2092.52" waitingTime="28.00" waitingCount="2" stopTime="0.00" timeLoss="63.15" rerouteNo="0" devices="tripinfo_35" vType="DEFAULT_VEHTYPE" speedFactor="1.18" vaporized=""/>
    <tripinfo id="43" depart="172.00" departLane="124095559#1_0" departPos="5.10" departSpeed="18.35" departDelay="0.00" arrival="284.00" arrivalLane="42195400#2_0" arrivalPos="134.12" arrivalSpeed="13.68" duration="112.00" routeLength="638.32" waitingTime="47.00" waitingCount="3" stopTime="0.00" timeLoss="85.43" rerouteNo="0" devices="tripinfo_43" vType="DEFAULT_VEHTYPE" speedFactor="1.18" vaporized=""/>
    <tripinfo id="24" depart="99.00" departLane="301781877#1_0" departPos="5.10" departSpeed="10.34" departDelay="3.00" arrival="287.00" arrivalLane="-123700467#2_0" arrivalPos="133.66" arrivalSpeed="22.14" duration="188.00" routeLength="804.95" waitingTime="90.00" waitingCount="4" stopTime="0.00" timeLoss="147.86" rerouteNo="0" devices="tripinfo_24" vType="DEFAULT_VEHTYPE" speedFactor="1.01" vaporized=""/>
    <tripinfo id="46" depart="186.00" departLane="124095559#2_0" departPos="5.10" departSpeed="12.01" departDelay="2.00" arrival="287.00" arrivalLane="50342919#1_0" arrivalPos="185.31" arrivalSpeed="21.95" duration="101.00" routeLength="462.84" waitingTime="50.00" waitingCount="2" stopTime="0.00" timeLoss="78.84" rerouteNo="0" devices="tripinfo_46" vType="DEFAULT_VEHTYPE" speedFactor="1.03" vaporized=""/>
    <tripinfo id="30" depart="122.00" departLane="42195400#2_0" departPos="5.10" departSpeed="8.85" departDelay="2.00" arrival="288.00" arrivalLane="-123700467#0_0" arrivalPos="1091.93" arrivalSpeed="18.57" duration="166.00" routeLength="1401.90" waitingTime="72.00" waitingCount="2" stopTime="0.00" timeLoss="91.81" rerouteNo="0" devices="tripinfo_30" vType="DEFAULT_VEHTYPE" speedFactor="0.87" vaporized=""/>
    <tripinfo id="45" depart="180.00" departLane="50342919#0_0" departPos="5.10" departSpeed="20.01" departDelay="0.00" arrival="291.00" arrivalLane="123700467#1_0" arrivalPos="131.53" arrivalSpeed="19.19" duration="111.00" routeLength="1498.45" waitingTime="13.00" waitingCount="1" stopTime="0.00" timeLoss="33.53" rerouteNo="0" devices="tripinfo_45" vType="DEFAULT_VEHTYPE" speedFactor="0.90" vaporized=""/>
    <tripinfo id="39" depart="156.00" departLane="59387952#2_0" departPos="5.10" departSpeed="22.10" departDelay="0.00" arrival="295.00" arrivalLane="59387952#1_0" arrivalPos="160.17" arrivalSpeed="21.46" duration="139.00" routeLength="1002.29" waitingTime="51.00" waitingCount="3" stopTime="0.00" timeLoss="90.19" rerouteNo="0" devices="tripinfo_39" vType="DEFAULT_VEHTYPE" speedFactor="0.99" vaporized=""/>
    <tripinfo id="31" depart="124.00" departLane="50342919#0_0" departPos="5.10" departSpeed="20.38" departDelay="0.00" arrival="332.00" arrivalLane="-123700467#0_0" arrivalPos="1091.93" arrivalSpeed="19.51" duration="208.00" routeLength="2465.48" waitingTime="68.00" waitingCount="2" stopTime="0.00" timeLoss="85.52" rerouteNo="0" devices="tripinfo_31" vType="DEFAULT_VEHTYPE" speedFactor="0.92" vaporized=""/>
    <tripinfo id="47" depart="188.00" departLane="-124095559#1_0" departPos="5.10" departSpeed="21.27" departDelay="0.00" arrival="333.00" arrivalLane="-123700467#0_0" arrivalPos="1091.93" arrivalSpeed="20.85" duration="145.00" routeLength="1699.71" waitingTime="27.00" waitingCount="2" stopTime="0.00" timeLoss="62.34" rerouteNo="0" devices="tripinfo_47" vType="DEFAULT_VEHTYPE" speedFactor="0.96" vaporized=""/>
</tripinfos>
